# vtk DataFile Version 3.0
Voxel output file generated from the SCONE Monte Carlo code
ASCII
DATASET STRUCTURED_POINTS
DIMENSIONS 500 500 1
ORIGIN -34.356 -34.356 -.500
SPACING .152 .152 1.000
POINT_DATA 250000
SCALARS uniqueID float 1
LOOKUP_TABLE default
66
66
66
58
58
59
59
67
67
67
68
122
122
122
114
114
115
115
123
123
123
177
178
178
178
170
170
171
171
179
179
179
233
234
234
234
226
226
227
227
235
235
236
290
290
290
282
282
283
283
291
291
291
292
346
346
346
338
338
339
339
347
347
347
401
402
402
402
394
394
395
395
403
403
403
457
458
458
458
450
450
451
459
459
459
460
514
514
514
506
506
507
507
515
515
515
516
570
570
570
562
562
563
563
571
571
571
625
626
626
626
618
618
619
619
627
627
627
681
682
682
674
674
675
675
683
683
683
684
738
738
738
730
730
731
731
739
739
739
740
794
794
794
786
786
787
787
795
795
795
849
850
850
850
842
842
843
843
851
851
851
905
906
906
898
898
899
899
907
907
907
908
962
962
962
954
954
955
955
963
963
963
1017
1018
1018
1018
1010
1010
1011
1011
1019
1019
1019
1073
1074
1074
1074
1066
1066
1067
1067
1075
1075
1076
1130
1130
1130
1122
1122
1123
1123
1131
1131
1131
1132
1186
1186
1186
1178
1178
1179
1179
1187
1187
1187
26914
26914
26915
26916
26917
26918
26919
26920
26921
26922
26923
27014
27015
27016
27017
27018
27018
27019
27020
27021
27022
27023
27114
27115
27116
27117
27118
27119
27120
27121
27122
27122
27123
27214
27215
27216
27217
27218
27219
27220
27221
27222
27223
27314
27315
27315
27316
27317
27318
27319
27320
27321
27322
27323
27414
27415
27416
27417
27418
27419
27419
27420
27421
27422
27423
27514
27515
27516
27517
27518
27519
27520
27521
27522
27522
27523
27614
27615
27616
27617
27618
27619
27620
27621
27622
27623
27714
27715
27716
27716
27717
27718
27719
27720
27721
27722
27723
27814
27815
27816
27817
27818
27819
27820
27820
27821
27822
27823
27914
27914
27915
27915
27916
27916
27917
27917
27918
27918
27918
27939
27939
27940
27940
27941
27941
27942
27942
27943
27943
27964
27964
27965
27965
27965
27966
27966
27967
27967
27968
27968
27989
27989
27990
27990
27991
27991
27992
27992
27992
27993
27993
28014
28014
28015
28015
28016
28016
28017
28017
28018
28018
28039
28039
28039
28040
28040
28041
28041
28042
28042
28043
28043
28064
28064
28065
28065
28066
28066
28066
28067
28067
28068
28068
28089
28089
28090
28090
28091
28091
28092
28092
28092
28093
28093
28114
28114
28115
28115
28116
28116
28117
28117
28118
28118
28139
28139
28139
28140
28140
28141
28141
28142
28142
28143
28143
28164
28164
28165
28165
28166
28166
28166
28167
28167
28168
28168
53689
53689
53690
53690
53691
53691
53692
53692
53693
53693
53693
53714
53714
53715
53715
53716
53716
53717
53717
53718
53718
53739
53739
53740
53740
53740
53741
53741
53742
53742
53743
53743
53764
53764
53765
53765
53766
53766
53766
53767
53767
53768
53768
53789
53789
53790
53790
53791
53791
65
66
58
58
58
51
59
59
59
68
68
121
122
114
114
106
107
115
115
115
124
177
177
170
170
170
162
163
171
171
179
180
233
233
226
226
226
218
227
227
227
236
236
289
290
282
282
274
275
283
283
283
292
292
345
338
338
338
330
331
339
339
339
348
401
401
394
394
394
386
387
395
395
403
404
457
457
450
450
450
442
451
451
451
460
460
513
514
506
506
498
499
507
507
507
516
516
569
562
562
562
554
555
563
563
563
572
625
625
618
618
618
610
611
619
619
627
628
681
681
674
674
674
667
675
675
675
684
684
737
738
730
730
722
723
731
731
731
740
740
793
786
786
786
778
779
787
787
795
796
849
849
842
842
842
834
843
843
843
851
852
905
905
898
898
898
891
899
899
899
908
908
961
962
954
954
946
947
955
955
955
964
1017
1017
1010
1010
1010
1002
1003
1011
1011
1019
1020
1073
1073
1066
1066
1066
1058
1067
1067
1067
1076
1076
1129
1130
1122
1122
1114
1115
1123
1123
1123
1132
1132
1185
1186
1178
1178
1170
1171
1179
1179
1179
1188
26924
26924
26925
26926
26927
26928
26929
26930
26931
26932
26933
27024
27025
27026
27027
27028
27028
27029
27030
27031
27032
27033
27124
27125
27126
27127
27128
27129
27130
27131
27132
27132
27133
27224
27225
27226
27227
27228
27229
27230
27231
27232
27233
27324
27325
27325
27326
27327
27328
27329
27330
27331
27332
27333
27424
27425
27426
27427
27428
27429
27429
27430
27431
27432
27433
27524
27525
27526
27527
27528
27529
27530
27531
27532
27532
27533
27624
27625
27626
27627
27628
27629
27630
27631
27632
27633
27724
27725
27726
27726
27727
27728
27729
27730
27731
27732
27733
27824
27825
27826
27827
27828
27829
27830
27830
27831
27832
27833
27914
27914
27915
27915
27916
27916
27917
27917
27918
27918
27918
27939
27939
27940
27940
27941
27941
27942
27942
27943
27943
27964
27964
27965
27965
27965
27966
27966
27967
27967
27968
27968
27989
27989
27990
27990
27991
27991
27992
27992
27992
27993
27993
28014
28014
28015
28015
28016
28016
28017
28017
28018
28018
28039
28039
28039
28040
28040
28041
28041
28042
28042
28043
28043
28064
28064
28065
28065
28066
28066
28066
28067
28067
28068
28068
28089
28089
28090
28090
28091
28091
28092
28092
28092
28093
28093
28114
28114
28115
28115
28116
28116
28117
28117
28118
28118
28139
28139
28139
28140
28140
28141
28141
28142
28142
28143
28143
28164
28164
28165
28165
28166
28166
28166
28167
28167
28168
28168
53689
53689
53690
53690
53691
53691
53692
53692
53693
53693
53693
53714
53714
53715
53715
53716
53716
53717
53717
53718
53718
53739
53739
53740
53740
53740
53741
53741
53742
53742
53743
53743
53764
53764
53765
53765
53766
53766
53766
53767
53767
53768
53768
53789
53789
53790
53790
53791
53791
65
57
58
42
34
35
35
51
60
60
68
121
113
106
90
90
91
91
107
116
124
177
169
169
162
146
146
147
147
163
172
180
233
225
225
218
202
202
203
219
228
228
236
289
281
282
266
258
259
259
275
284
284
292
345
337
330
314
314
315
315
331
340
348
401
393
393
386
370
370
371
371
387
396
404
457
449
449
442
426
426
427
443
452
452
460
513
505
506
482
482
483
483
499
508
508
516
569
561
554
538
538
539
539
555
564
572
625
617
617
610
594
594
595
595
619
620
628
681
673
673
666
650
651
651
667
676
676
684
737
729
722
706
706
707
707
723
732
732
740
793
785
778
762
762
763
763
779
788
796
849
841
841
834
818
818
819
827
843
844
852
905
897
897
890
874
875
875
891
900
900
908
961
953
946
930
930
931
931
947
956
956
1017
1009
1009
1002
986
986
987
987
1003
1012
1020
1073
1065
1065
1058
1042
1042
1043
1059
1068
1068
1076
1129
1121
1122
1106
1098
1099
1099
1115
1124
1124
1132
1185
1177
1170
1154
1154
1155
1155
1171
1180
1188
26934
26934
26935
26936
26937
26938
26939
26940
26941
26942
26943
27034
27035
27036
27037
27038
27038
27039
27040
27041
27042
27043
27134
27135
27136
27137
27138
27139
27140
27141
27142
27142
27143
27234
27235
27236
27237
27238
27239
27240
27241
27242
27243
27334
27335
27335
27336
27337
27338
27339
27340
27341
27342
27343
27434
27435
27436
27437
27438
27439
27439
27440
27441
27442
27443
27534
27535
27536
27537
27538
27539
27540
27541
27542
27542
27543
27634
27635
27636
27637
27638
27639
27640
27641
27642
27643
27734
27735
27736
27736
27737
27738
27739
27740
27741
27742
27743
27834
27835
27836
27837
27838
27839
27840
27840
27841
27842
27843
27919
27919
27920
27920
27921
27921
27922
27922
27923
27923
27923
27944
27944
27945
27945
27946
27946
27947
27947
27948
27948
27969
27969
27970
27970
27970
27971
27971
27972
27972
27973
27973
27994
27994
27995
27995
27996
27996
27997
27997
27997
27998
27998
28019
28019
28020
28020
28021
28021
28022
28022
28023
28023
28044
28044
28044
28045
28045
28046
28046
28047
28047
28048
28048
28069
28069
28070
28070
28071
28071
28071
28072
28072
28073
28073
28094
28094
28095
28095
28096
28096
28097
28097
28097
28098
28098
28119
28119
28120
28120
28121
28121
28122
28122
28123
28123
28144
28144
28144
28145
28145
28146
28146
28147
28147
28148
28148
28169
28169
28170
28170
28171
28171
28171
28172
28172
28173
28173
53694
53694
53695
53695
53696
53696
53697
53697
53698
53698
53698
53719
53719
53720
53720
53721
53721
53722
53722
53723
53723
53744
53744
53745
53745
53745
53746
53746
53747
53747
53748
53748
53769
53769
53770
53770
53771
53771
53771
53772
53772
53773
53773
53794
53794
53795
53795
53796
53796
57
57
41
26
26
19
27
36
52
60
68
113
113
89
82
82
75
83
92
108
116
177
169
161
145
138
130
139
139
148
172
172
233
225
217
201
194
186
195
196
220
228
236
281
281
257
250
250
243
251
260
276
284
292
337
337
313
306
298
299
307
316
332
340
401
393
385
369
362
354
363
363
372
396
396
457
449
441
417
418
410
419
420
444
452
460
505
505
481
474
474
467
475
484
500
508
516
561
553
537
530
522
523
531
540
564
564
625
617
609
593
586
578
587
587
596
620
620
681
673
665
641
642
635
643
652
668
676
684
729
729
705
698
698
691
699
708
724
732
740
785
777
761
754
746
755
755
764
788
788
849
841
833
817
810
802
811
811
828
844
844
897
897
889
865
866
859
867
876
892
900
908
953
953
929
922
922
915
923
932
948
956
1017
1009
1001
985
978
970
979
979
988
1012
1012
1073
1065
1057
1041
1034
1026
1035
1036
1060
1068
1068
1121
1121
1105
1090
1090
1083
1091
1100
1116
1124
1132
1177
1177
1153
1146
1146
1139
1147
1156
1172
1180
26944
26944
26945
26946
26947
26948
26949
26950
26951
26952
26953
27044
27045
27046
27047
27048
27048
27049
27050
27051
27052
27053
27144
27145
27146
27147
27148
27149
27150
27151
27152
27152
27153
27244
27245
27246
27247
27248
27249
27250
27251
27252
27253
27344
27345
27345
27346
27347
27348
27349
27350
27351
27352
27353
27444
27445
27446
27447
27448
27449
27449
27450
27451
27452
27453
27544
27545
27546
27547
27548
27549
27550
27551
27552
27552
27553
27644
27645
27646
27647
27648
27649
27650
27651
27652
27653
27744
27745
27746
27746
27747
27748
27749
27750
27751
27752
27753
27844
27845
27846
27847
27848
27849
27850
27850
27851
27852
27853
27919
27919
27920
27920
27921
27921
27922
27922
27923
27923
27923
27944
27944
27945
27945
27946
27946
27947
27947
27948
27948
27969
27969
27970
27970
27970
27971
27971
27972
27972
27973
27973
27994
27994
27995
27995
27996
27996
27997
27997
27997
27998
27998
28019
28019
28020
28020
28021
28021
28022
28022
28023
28023
28044
28044
28044
28045
28045
28046
28046
28047
28047
28048
28048
28069
28069
28070
28070
28071
28071
28071
28072
28072
28073
28073
28094
28094
28095
28095
28096
28096
28097
28097
28097
28098
28098
28119
28119
28120
28120
28121
28121
28122
28122
28123
28123
28144
28144
28144
28145
28145
28146
28146
28147
28147
28148
28148
28169
28169
28170
28170
28171
28171
28171
28172
28172
28173
28173
53694
53694
53695
53695
53696
53696
53697
53697
53698
53698
53698
53719
53719
53720
53720
53721
53721
53722
53722
53723
53723
53744
53744
53745
53745
53745
53746
53746
53747
53747
53748
53748
53769
53769
53770
53770
53771
53771
53771
53772
53772
53773
53773
53794
53794
53795
53795
53796
53796
57
57
33
25
18
19
20
28
36
60
60
113
105
81
73
74
75
76
84
108
116
177
169
161
137
129
130
131
132
148
164
172
225
225
201
193
185
186
188
196
204
228
228
281
273
257
249
242
243
244
252
260
284
292
337
329
305
297
298
299
300
308
332
340
401
393
377
361
353
354
355
356
372
388
396
449
449
425
417
409
410
412
420
428
452
452
505
497
481
465
466
467
468
476
484
508
516
561
553
529
521
522
523
524
532
556
564
625
617
593
585
577
578
579
588
596
612
620
673
673
649
641
633
635
636
644
652
676
676
729
721
705
689
690
691
692
700
724
732
740
785
777
753
745
746
747
748
756
780
788
841
841
817
809
801
802
803
812
820
836
844
897
897
873
865
857
859
860
868
876
900
900
953
945
929
913
914
915
916
924
948
956
1017
1009
1001
977
969
970
971
972
988
1004
1012
1065
1065
1041
1033
1025
1026
1028
1036
1044
1068
1068
1121
1113
1097
1089
1082
1083
1084
1092
1100
1124
1124
1177
1169
1145
1137
1138
1139
1140
1148
1172
1180
26954
26954
26955
26956
26957
26958
26959
26960
26961
26962
26963
27054
27055
27056
27057
27058
27058
27059
27060
27061
27062
27063
27154
27155
27156
27157
27158
27159
27160
27161
27162
27162
27163
27254
27255
27256
27257
27258
27259
27260
27261
27262
27263
27354
27355
27355
27356
27357
27358
27359
27360
27361
27362
27363
27454
27455
27456
27457
27458
27459
27459
27460
27461
27462
27463
27554
27555
27556
27557
27558
27559
27560
27561
27562
27562
27563
27654
27655
27656
27657
27658
27659
27660
27661
27662
27663
27754
27755
27756
27756
27757
27758
27759
27760
27761
27762
27763
27854
27855
27856
27857
27858
27859
27860
27860
27861
27862
27863
27924
27924
27925
27925
27926
27926
27927
27927
27928
27928
27928
27949
27949
27950
27950
27951
27951
27952
27952
27953
27953
27974
27974
27975
27975
27975
27976
27976
27977
27977
27978
27978
27999
27999
28000
28000
28001
28001
28002
28002
28002
28003
28003
28024
28024
28025
28025
28026
28026
28027
28027
28028
28028
28049
28049
28049
28050
28050
28051
28051
28052
28052
28053
28053
28074
28074
28075
28075
28076
28076
28076
28077
28077
28078
28078
28099
28099
28100
28100
28101
28101
28102
28102
28102
28103
28103
28124
28124
28125
28125
28126
28126
28127
28127
28128
28128
28149
28149
28149
28150
28150
28151
28151
28152
28152
28153
28153
28174
28174
28175
28175
28176
28176
28176
28177
28177
28178
28178
53699
53699
53700
53700
53701
53701
53702
53702
53703
53703
53703
53724
53724
53725
53725
53726
53726
53727
53727
53728
53728
53749
53749
53750
53750
53750
53751
53751
53752
53752
53753
53753
53774
53774
53775
53775
53776
53776
53776
53777
53777
53778
53778
53799
53799
53800
53800
53801
53801
56
48
32
16
16
13
13
21
29
53
53
112
104
80
72
72
69
69
77
93
109
176
168
144
136
128
128
125
125
133
157
165
224
224
200
192
184
183
181
181
197
213
221
280
272
256
240
240
237
237
245
253
277
277
336
328
304
296
296
293
293
301
325
333
400
392
368
360
352
352
349
349
357
381
389
448
448
424
416
408
407
405
413
421
445
445
504
496
472
464
464
461
461
469
477
501
509
560
552
528
520
520
517
517
525
549
557
616
616
592
584
576
576
573
573
589
605
613
672
664
648
640
632
630
629
637
645
669
669
728
720
696
688
688
685
685
693
701
725
733
784
768
752
744
744
741
741
749
773
781
840
840
816
808
800
800
797
797
813
829
837
896
888
872
856
856
854
853
861
869
893
893
952
944
920
912
912
909
909
917
925
949
1016
1008
984
976
968
968
965
965
973
997
1005
1064
1064
1040
1032
1024
1023
1021
1021
1037
1053
1061
1120
1112
1096
1080
1080
1077
1077
1085
1093
1117
1117
1176
1168
1144
1136
1136
1133
1133
1141
1165
1173
26964
26964
26965
26966
26967
26968
26969
26970
26971
26972
26973
27064
27065
27066
27067
27068
27068
27069
27070
27071
27072
27073
27164
27165
27166
27167
27168
27169
27170
27171
27172
27172
27173
27264
27265
27266
27267
27268
27269
27270
27271
27272
27273
27364
27365
27365
27366
27367
27368
27369
27370
27371
27372
27373
27464
27465
27466
27467
27468
27469
27469
27470
27471
27472
27473
27564
27565
27566
27567
27568
27569
27570
27571
27572
27572
27573
27664
27665
27666
27667
27668
27669
27670
27671
27672
27673
27764
27765
27766
27766
27767
27768
27769
27770
27771
27772
27773
27864
27865
27866
27867
27868
27869
27870
27870
27871
27872
27873
27924
27924
27925
27925
27926
27926
27927
27927
27928
27928
27928
27949
27949
27950
27950
27951
27951
27952
27952
27953
27953
27974
27974
27975
27975
27975
27976
27976
27977
27977
27978
27978
27999
27999
28000
28000
28001
28001
28002
28002
28002
28003
28003
28024
28024
28025
28025
28026
28026
28027
28027
28028
28028
28049
28049
28049
28050
28050
28051
28051
28052
28052
28053
28053
28074
28074
28075
28075
28076
28076
28076
28077
28077
28078
28078
28099
28099
28100
28100
28101
28101
28102
28102
28102
28103
28103
28124
28124
28125
28125
28126
28126
28127
28127
28128
28128
28149
28149
28149
28150
28150
28151
28151
28152
28152
28153
28153
28174
28174
28175
28175
28176
28176
28176
28177
28177
28178
28178
53699
53699
53700
53700
53701
53701
53702
53702
53703
53703
53703
53724
53724
53725
53725
53726
53726
53727
53727
53728
53728
53749
53749
53750
53750
53750
53751
53751
53752
53752
53753
53753
53774
53774
53775
53775
53776
53776
53776
53777
53777
53778
53778
53799
53799
53800
53800
53801
53801
56
56
32
24
15
14
13
21
29
53
61
112
104
88
80
71
70
69
77
101
109
176
168
160
136
128
127
126
133
141
157
165
224
224
200
192
183
183
182
189
197
221
221
280
280
256
248
239
238
237
245
261
277
285
336
328
312
296
295
294
293
301
325
333
400
392
384
360
352
351
350
357
365
381
389
448
448
424
416
407
407
406
413
421
445
445
504
496
480
472
463
462
461
469
493
501
509
560
552
528
520
519
518
517
533
549
557
624
616
600
584
576
575
574
581
589
605
613
672
672
648
640
631
630
630
637
645
669
669
728
720
704
696
687
686
685
693
717
725
733
784
776
752
744
743
742
741
757
773
781
848
840
816
808
800
799
798
805
813
837
837
896
896
872
864
855
854
854
861
869
893
893
952
944
928
920
911
910
909
917
941
949
1016
1008
1000
976
968
967
966
973
981
997
1005
1064
1064
1040
1032
1023
1023
1022
1029
1037
1061
1061
1120
1120
1096
1088
1079
1078
1077
1085
1093
1117
1125
1176
1168
1152
1136
1135
1134
1133
1141
1165
1173
26974
26974
26975
26976
26977
26978
26979
26980
26981
26982
26983
27074
27075
27076
27077
27078
27078
27079
27080
27081
27082
27083
27174
27175
27176
27177
27178
27179
27180
27181
27182
27182
27183
27274
27275
27276
27277
27278
27279
27280
27281
27282
27283
27374
27375
27375
27376
27377
27378
27379
27380
27381
27382
27383
27474
27475
27476
27477
27478
27479
27479
27480
27481
27482
27483
27574
27575
27576
27577
27578
27579
27580
27581
27582
27582
27583
27674
27675
27676
27677
27678
27679
27680
27681
27682
27683
27774
27775
27776
27776
27777
27778
27779
27780
27781
27782
27783
27874
27875
27876
27877
27878
27879
27880
27880
27881
27882
27883
27929
27929
27930
27930
27931
27931
27932
27932
27933
27933
27933
27954
27954
27955
27955
27956
27956
27957
27957
27958
27958
27979
27979
27980
27980
27980
27981
27981
27982
27982
27983
27983
28004
28004
28005
28005
28006
28006
28007
28007
28007
28008
28008
28029
28029
28030
28030
28031
28031
28032
28032
28033
28033
28054
28054
28054
28055
28055
28056
28056
28057
28057
28058
28058
28079
28079
28080
28080
28081
28081
28081
28082
28082
28083
28083
28104
28104
28105
28105
28106
28106
28107
28107
28107
28108
28108
28129
28129
28130
28130
28131
28131
28132
28132
28133
28133
28154
28154
28154
28155
28155
28156
28156
28157
28157
28158
28158
28179
28179
28180
28180
28181
28181
28181
28182
28182
28183
28183
53704
53704
53705
53705
53706
53706
53707
53707
53708
53708
53708
53729
53729
53730
53730
53731
53731
53732
53732
53733
53733
53754
53754
53755
53755
53755
53756
53756
53757
53757
53758
53758
53779
53779
53780
53780
53781
53781
53781
53782
53782
53783
53783
53804
53804
53805
53805
53806
53806
64
56
48
31
23
22
22
29
45
53
61
112
112
88
79
79
78
78
85
109
109
176
168
168
144
135
135
134
134
149
165
165
232
224
216
199
191
191
190
198
213
221
229
288
280
272
255
247
246
246
253
269
277
285
336
336
312
303
303
302
302
309
333
333
400
392
384
368
359
359
358
358
381
389
389
456
448
440
423
415
415
414
422
437
445
453
504
504
496
471
471
470
470
477
493
501
509
560
560
536
527
527
526
526
533
557
557
624
616
608
592
583
583
582
590
605
613
613
680
672
664
647
639
638
638
646
661
669
677
728
728
720
695
695
694
694
701
717
725
733
784
784
760
751
751
750
750
757
781
781
848
840
832
816
807
807
806
814
829
837
845
904
896
888
871
863
862
862
870
885
893
901
952
952
936
919
919
918
918
925
949
949
1016
1008
1008
984
975
975
974
974
989
1005
1005
1072
1064
1056
1039
1031
1031
1030
1038
1053
1061
1069
1128
1120
1112
1095
1087
1086
1086
1093
1109
1117
1125
1176
1176
1152
1143
1143
1142
1142
1149
1173
1173
26974
26974
26975
26976
26977
26978
26979
26980
26981
26982
26983
27074
27075
27076
27077
27078
27078
27079
27080
27081
27082
27083
27174
27175
27176
27177
27178
27179
27180
27181
27182
27182
27183
27274
27275
27276
27277
27278
27279
27280
27281
27282
27283
27374
27375
27375
27376
27377
27378
27379
27380
27381
27382
27383
27474
27475
27476
27477
27478
27479
27479
27480
27481
27482
27483
27574
27575
27576
27577
27578
27579
27580
27581
27582
27582
27583
27674
27675
27676
27677
27678
27679
27680
27681
27682
27683
27774
27775
27776
27776
27777
27778
27779
27780
27781
27782
27783
27874
27875
27876
27877
27878
27879
27880
27880
27881
27882
27883
27929
27929
27930
27930
27931
27931
27932
27932
27933
27933
27933
27954
27954
27955
27955
27956
27956
27957
27957
27958
27958
27979
27979
27980
27980
27980
27981
27981
27982
27982
27983
27983
28004
28004
28005
28005
28006
28006
28007
28007
28007
28008
28008
28029
28029
28030
28030
28031
28031
28032
28032
28033
28033
28054
28054
28054
28055
28055
28056
28056
28057
28057
28058
28058
28079
28079
28080
28080
28081
28081
28081
28082
28082
28083
28083
28104
28104
28105
28105
28106
28106
28107
28107
28107
28108
28108
28129
28129
28130
28130
28131
28131
28132
28132
28133
28133
28154
28154
28154
28155
28155
28156
28156
28157
28157
28158
28158
28179
28179
28180
28180
28181
28181
28181
28182
28182
28183
28183
53704
53704
53705
53705
53706
53706
53707
53707
53708
53708
53708
53729
53729
53730
53730
53731
53731
53732
53732
53733
53733
53754
53754
53755
53755
53755
53756
53756
53757
53757
53758
53758
53779
53779
53780
53780
53781
53781
53781
53782
53782
53783
53783
53804
53804
53805
53805
53806
53806
64
56
55
47
31
30
30
46
53
53
61
120
112
111
103
87
86
102
102
109
117
176
176
168
159
151
143
142
158
166
165
173
232
224
223
215
199
199
198
214
222
221
229
288
280
279
271
255
254
254
270
277
277
285
344
336
335
327
311
310
326
334
333
341
400
400
392
383
375
367
366
382
390
389
397
456
448
447
439
423
423
422
438
446
445
453
512
504
503
495
479
478
478
494
501
509
509
568
560
559
551
535
534
550
558
557
565
624
624
616
607
591
591
590
606
614
613
621
680
672
671
663
647
646
646
662
670
669
677
736
728
727
719
703
702
710
718
725
733
733
792
784
783
775
759
758
774
782
781
789
848
840
840
831
815
815
814
830
838
837
845
904
896
895
887
871
870
870
886
894
893
901
960
952
951
943
927
926
934
942
949
957
1016
1016
1008
999
991
983
982
998
1006
1005
1013
1072
1064
1063
1055
1039
1039
1038
1054
1062
1061
1069
1128
1120
1119
1111
1095
1094
1094
1110
1117
1117
1125
1184
1176
1175
1167
1151
1150
1166
1174
1173
1181
26984
26984
26985
26986
26987
26988
26989
26990
26991
26992
26993
27084
27085
27086
27087
27088
27088
27089
27090
27091
27092
27093
27184
27185
27186
27187
27188
27189
27190
27191
27192
27192
27193
27284
27285
27286
27287
27288
27289
27290
27291
27292
27293
27384
27385
27385
27386
27387
27388
27389
27390
27391
27392
27393
27484
27485
27486
27487
27488
27489
27489
27490
27491
27492
27493
27584
27585
27586
27587
27588
27589
27590
27591
27592
27592
27593
27684
27685
27686
27687
27688
27689
27690
27691
27692
27693
27784
27785
27786
27786
27787
27788
27789
27790
27791
27792
27793
27884
27885
27886
27887
27888
27889
27890
27890
27891
27892
27893
27929
27929
27930
27930
27931
27931
27932
27932
27933
27933
27933
27954
27954
27955
27955
27956
27956
27957
27957
27958
27958
27979
27979
27980
27980
27980
27981
27981
27982
27982
27983
27983
28004
28004
28005
28005
28006
28006
28007
28007
28007
28008
28008
28029
28029
28030
28030
28031
28031
28032
28032
28033
28033
28054
28054
28054
28055
28055
28056
28056
28057
28057
28058
28058
28079
28079
28080
28080
28081
28081
28081
28082
28082
28083
28083
28104
28104
28105
28105
28106
28106
28107
28107
28107
28108
28108
28129
28129
28130
28130
28131
28131
28132
28132
28133
28133
28154
28154
28154
28155
28155
28156
28156
28157
28157
28158
28158
28179
28179
28180
28180
28181
28181
28181
28182
28182
28183
28183
53704
53704
53705
53705
53706
53706
53707
53707
53708
53708
53708
53729
53729
53730
53730
53731
53731
53732
53732
53733
53733
53754
53754
53755
53755
53755
53756
53756
53757
53757
53758
53758
53779
53779
53780
53780
53781
53781
53781
53782
53782
53783
53783
53804
53804
53805
53805
53806
53806
64
63
55
55
55
54
54
54
54
61
61
120
119
111
111
111
110
110
110
118
117
176
176
175
167
167
167
166
166
166
174
173
232
231
223
223
223
223
222
222
222
230
229
288
287
279
279
279
278
278
278
278
285
285
344
343
335
335
335
334
334
334
342
341
400
400
399
391
391
391
390
390
390
398
397
456
455
447
447
447
447
446
446
446
454
453
512
511
503
503
503
502
502
502
510
509
509
568
567
559
559
559
558
558
558
566
565
624
624
615
615
615
615
614
614
614
622
621
680
679
671
671
671
670
670
670
670
678
677
736
735
727
727
727
726
726
726
734
733
733
792
791
783
783
783
782
782
782
790
789
848
848
839
839
839
839
838
838
838
846
845
904
903
895
895
895
894
894
894
894
902
901
960
959
951
951
951
950
950
950
958
957
1016
1016
1015
1007
1007
1007
1006
1006
1006
1014
1013
1072
1071
1063
1063
1063
1063
1062
1062
1062
1070
1069
1128
1127
1119
1119
1119
1118
1118
1118
1118
1125
1125
1184
1183
1175
1175
1175
1174
1174
1174
1182
1181
26994
26994
26995
26996
26997
26998
26999
27000
27001
27002
27003
27094
27095
27096
27097
27098
27098
27099
27100
27101
27102
27103
27194
27195
27196
27197
27198
27199
27200
27201
27202
27202
27203
27294
27295
27296
27297
27298
27299
27300
27301
27302
27303
27394
27395
27395
27396
27397
27398
27399
27400
27401
27402
27403
27494
27495
27496
27497
27498
27499
27499
27500
27501
27502
27503
27594
27595
27596
27597
27598
27599
27600
27601
27602
27602
27603
27694
27695
27696
27697
27698
27699
27700
27701
27702
27703
27794
27795
27796
27796
27797
27798
27799
27800
27801
27802
27803
27894
27895
27896
27897
27898
27899
27900
27900
27901
27902
27903
27934
27934
27935
27935
27936
27936
27937
27937
27938
27938
27938
27959
27959
27960
27960
27961
27961
27962
27962
27963
27963
27984
27984
27985
27985
27985
27986
27986
27987
27987
27988
27988
28009
28009
28010
28010
28011
28011
28012
28012
28012
28013
28013
28034
28034
28035
28035
28036
28036
28037
28037
28038
28038
28059
28059
28059
28060
28060
28061
28061
28062
28062
28063
28063
28084
28084
28085
28085
28086
28086
28086
28087
28087
28088
28088
28109
28109
28110
28110
28111
28111
28112
28112
28112
28113
28113
28134
28134
28135
28135
28136
28136
28137
28137
28138
28138
28159
28159
28159
28160
28160
28161
28161
28162
28162
28163
28163
28184
28184
28185
28185
28186
28186
28186
28187
28187
28188
28188
53709
53709
53710
53710
53711
53711
53712
53712
53713
53713
53713
53734
53734
53735
53735
53736
53736
53737
53737
53738
53738
53759
53759
53760
53760
53760
53761
53761
53762
53762
53763
53763
53784
53784
53785
53785
53786
53786
53786
53787
53787
53788
53788
53809
53809
53810
53810
53811
53811
63
63
63
63
55
54
62
62
62
62
61
119
119
119
119
111
110
118
118
118
118
176
175
175
175
175
167
166
174
174
174
174
231
231
231
231
223
223
222
230
230
230
230
287
287
287
287
279
278
286
286
286
286
285
343
343
343
343
335
334
342
342
342
342
400
399
399
399
399
391
390
398
398
398
398
455
455
455
455
447
447
446
454
454
454
454
511
511
511
511
503
502
510
510
510
510
509
567
567
567
567
559
558
566
566
566
566
624
623
623
623
623
615
614
622
622
622
622
679
679
679
679
671
670
670
678
678
678
678
735
735
735
735
727
726
734
734
734
734
733
791
791
791
791
783
782
790
790
790
790
848
847
847
847
847
839
838
846
846
846
846
903
903
903
903
895
894
902
902
902
902
902
959
959
959
959
951
950
958
958
958
958
1016
1015
1015
1015
1015
1007
1006
1014
1014
1014
1014
1071
1071
1071
1071
1063
1063
1062
1070
1070
1070
1070
1127
1127
1127
1127
1119
1118
1126
1126
1126
1126
1125
1183
1183
1183
1183
1175
1174
1182
1182
1182
1182
27004
27004
27005
27006
27007
27008
27009
27010
27011
27012
27013
27104
27105
27106
27107
27108
27108
27109
27110
27111
27112
27113
27204
27205
27206
27207
27208
27209
27210
27211
27212
27212
27213
27304
27305
27306
27307
27308
27309
27310
27311
27312
27313
27404
27405
27405
27406
27407
27408
27409
27410
27411
27412
27413
27504
27505
27506
27507
27508
27509
27509
27510
27511
27512
27513
27604
27605
27606
27607
27608
27609
27610
27611
27612
27612
27613
27704
27705
27706
27707
27708
27709
27710
27711
27712
27713
27804
27805
27806
27806
27807
27808
27809
27810
27811
27812
27813
27904
27905
27906
27907
27908
27909
27910
27910
27911
27912
27913
27934
27934
27935
27935
27936
27936
27937
27937
27938
27938
27938
27959
27959
27960
27960
27961
27961
27962
27962
27963
27963
27984
27984
27985
27985
27985
27986
27986
27987
27987
27988
27988
28009
28009
28010
28010
28011
28011
28012
28012
28012
28013
28013
28034
28034
28035
28035
28036
28036
28037
28037
28038
28038
28059
28059
28059
28060
28060
28061
28061
28062
28062
28063
28063
28084
28084
28085
28085
28086
28086
28086
28087
28087
28088
28088
28109
28109
28110
28110
28111
28111
28112
28112
28112
28113
28113
28134
28134
28135
28135
28136
28136
28137
28137
28138
28138
28159
28159
28159
28160
28160
28161
28161
28162
28162
28163
28163
28184
28184
28185
28185
28186
28186
28186
28187
28187
28188
28188
53709
53709
53710
53710
53711
53711
53712
53712
53713
53713
53713
53734
53734
53735
53735
53736
53736
53737
53737
53738
53738
53759
53759
53760
53760
53760
53761
53761
53762
53762
53763
53763
53784
53784
53785
53785
53786
53786
53786
53787
53787
53788
53788
53809
53809
53810
53810
53811
53811
1241
1242
1242
1234
1234
1235
1235
1235
1243
1243
1244
1298
1298
1298
1290
1290
1291
1291
1291
1299
1299
1353
1354
1354
1346
1346
1346
1347
1347
1355
1355
1356
1409
1410
1410
1402
1402
1402
1403
1403
1411
1411
1412
1465
1466
1466
1458
1458
1459
1459
1459
1467
1467
1468
1522
1522
1522
1514
1514
1515
1515
1515
1523
1523
1577
1578
1578
1570
1570
1570
1571
1571
1579
1579
1580
1633
1634
1634
1626
1626
1626
1627
1627
1635
1635
1636
1689
1690
1690
1682
1682
1683
1683
1683
1691
1691
1692
1746
1746
1738
1738
1738
1739
1739
1739
1747
1747
1801
1802
1802
1794
1794
1794
1795
1795
1803
1803
1804
1857
1858
1858
1850
1850
1851
1851
1851
1859
1859
1860
1913
1914
1914
1906
1906
1907
1907
1907
1915
1915
1916
1970
1970
1962
1962
1962
1963
1963
1971
1971
1971
2025
2026
2026
2018
2018
2018
2019
2019
2027
2027
2028
2081
2082
2082
2074
2074
2075
2075
2075
2083
2083
2084
2137
2138
2138
2130
2130
2131
2131
2131
2139
2139
2193
2194
2194
2186
2186
2186
2187
2187
2195
2195
2196
2249
2250
2250
2242
2242
2242
2243
2243
2251
2251
2252
2305
2306
2306
2298
2298
2299
2299
2299
2307
2307
2308
2362
2362
2362
2354
2354
2355
2355
2355
2363
2363
28189
28189
28190
28191
28192
28193
28194
28195
28196
28197
28198
28289
28290
28291
28292
28293
28293
28294
28295
28296
28297
28298
28389
28390
28391
28392
28393
28394
28395
28396
28397
28397
28398
28489
28490
28491
28492
28493
28494
28495
28496
28497
28498
28589
28590
28590
28591
28592
28593